<?xml version="1.0" encoding="UTF-8"?>

<!-- generated on 2023-11-01 13:49:15 by Eclipse SUMO GUI Version 1.16.0
<configuration xmlns:xsi="http://www.w3.org/2001/XMLSchema-instance" xsi:noNamespaceSchemaLocation="http://sumo.dlr.de/xsd/sumoConfiguration.xsd">

    <input>
        <net-file value="D:\ISO及智能车连文件\V2X复杂路口多车轨迹预测及主车驾驶规控利用HIL+RL+Sumo\SumoShowRLTL\RLIntersectionWithSumo\RLmapsumoTL.net.xml"/>
        <route-files value="D:\ISO及智能车连文件\V2X复杂路口多车轨迹预测及主车驾驶规控利用HIL+RL+Sumo\SumoShowRLTL\RLIntersectionWithSumo\map.rou.xml"/>
        <additional-files value="D:\ISO及智能车连文件\V2X复杂路口多车轨迹预测及主车驾驶规控利用HIL+RL+Sumo\SumoShowRLTL\RLIntersectionWithSumo\RLmapsumo.poly.add.xml"/>
    </input>

    <output>
        <tripinfo-output value="D:\ISO及智能车连文件\V2X复杂路口多车轨迹预测及主车驾驶规控利用HIL+RL+Sumo\SumoShowRLTL\RLIntersectionWithSumo/tripinfo2_TEST.xml"/>
    </output>

    <time>
        <step-length value="1.0"/>
    </time>

    <processing>
        <default.speeddev value="100"/>
    </processing>

    <report>
        <duration-log.disable value="true"/>
        <duration-log.statistics value="true"/>
        <no-step-log value="true"/>
    </report>

    <traci_server>
        <remote-port value="39350"/>
    </traci_server>

    <gui_only>
        <gui-settings-file value="D:\ISO及智能车连文件\V2X复杂路口多车轨迹预测及主车驾驶规控利用HIL+RL+Sumo\SumoShowRLTL\RLIntersectionWithSumo\gui-settings.cfg"/>
    </gui_only>

</configuration>
-->

<tripinfos xmlns:xsi="http://www.w3.org/2001/XMLSchema-instance" xsi:noNamespaceSchemaLocation="http://sumo.dlr.de/xsd/tripinfo_file.xsd">
    <tripinfo id="4" depart="0.00" departLane="-E2_1" departPos="71.00" departSpeed="0.00" departDelay="0.00" arrival="23.00" arrivalLane="E0_1" arrivalPos="113.00" arrivalSpeed="8.00" duration="23.00" routeLength="179.00" waitingTime="0.00" waitingCount="0" stopTime="0.00" timeLoss="12.88" rerouteNo="0" devices="tripinfo_4" vType="CAR" speedFactor="1.31" vaporized=""/>
